<?xml version="1.0" encoding="UTF-8"?>

<!-- generated on Mon 04 May 2020 07:56:45 AM PDT by Eclipse SUMO GUI Version 1.5.0
<configuration xmlns:xsi="http://www.w3.org/2001/XMLSchema-instance" xsi:noNamespaceSchemaLocation="http://sumo.dlr.de/xsd/sumoConfiguration.xsd">

    <input>
        <net-file value="sumo/intersections/aarhus_intersection/osm.net.xml"/>
        <route-files value="sumo/intersections/aarhus_intersection/osm.rou.xml"/>
        <additional-files value="sumo/intersections/aarhus_intersection/osm.poly.xml"/>
    </input>

    <output>
        <tripinfo-output value="tripinfo.xml"/>
    </output>

    <time>
        <step-length value="0.05"/>
    </time>

    <processing>
        <ignore-route-errors value="false"/>
    </processing>

    <routing>
        <device.rerouting.adaptation-steps value="180"/>
    </routing>

    <report>
        <verbose value="true"/>
        <duration-log.statistics value="true"/>
        <no-step-log value="true"/>
    </report>

    <traci_server>
        <remote-port value="56119"/>
    </traci_server>

    <gui_only>
        <gui-settings-file value="sumo/intersections/aarhus_intersection/osm.view.xml"/>
        <tracker-interval value="0.05"/>
    </gui_only>

</configuration>
-->

<tripinfos xmlns:xsi="http://www.w3.org/2001/XMLSchema-instance" xsi:noNamespaceSchemaLocation="http://sumo.dlr.de/xsd/tripinfo_file.xsd">
    <tripinfo id="a1_left_v.0" depart="0.00" departLane="gneE19_0" departPos="5.10" departSpeed="0.00" departDelay="0.00" arrival="51.60" arrivalLane="gneE4_1" arrivalPos="105.71" arrivalSpeed="14.72" duration="51.60" routeLength="942.89" waitingTime="0.00" waitingCount="0" stopTime="0.00" timeLoss="7.75" rerouteNo="0" devices="tripinfo_a1_left_v.0" vType="DEFAULT_VEHTYPE" speedFactor="1.06" vaporized=""/>
    <tripinfo id="bike_straight_b.0" depart="0.00" departLane="24095610_0" departPos="1.70" departSpeed="0.00" departDelay="0.00" arrival="71.00" arrivalLane="502199947#0_0" arrivalPos="151.11" arrivalSpeed="5.55" duration="71.00" routeLength="376.96" waitingTime="0.05" waitingCount="1" stopTime="0.00" timeLoss="3.15" rerouteNo="0" devices="tripinfo_bike_straight_b.0" vType="DEFAULT_BIKETYPE" speedFactor="0.86" vaporized=""/>
    <tripinfo id="a2_right_v.0" depart="0.00" departLane="gneE14_1" departPos="5.10" departSpeed="0.00" departDelay="0.00" arrival="74.75" arrivalLane="502199947#0_1" arrivalPos="151.11" arrivalSpeed="15.03" duration="74.75" routeLength="981.34" waitingTime="0.60" waitingCount="1" stopTime="0.00" timeLoss="8.79" rerouteNo="0" devices="tripinfo_a2_right_v.0" vType="DEFAULT_VEHTYPE" speedFactor="1.08" vaporized=""/>
    <tripinfo id="b_left_v.0" depart="0.00" departLane="-502199947#0_0" departPos="5.10" departSpeed="0.00" departDelay="0.00" arrival="82.05" arrivalLane="gneE15_0" arrivalPos="705.97" arrivalSpeed="14.47" duration="82.05" routeLength="992.08" waitingTime="6.30" waitingCount="1" stopTime="0.00" timeLoss="16.08" rerouteNo="0" devices="tripinfo_b_left_v.0" vType="DEFAULT_VEHTYPE" speedFactor="1.05" vaporized=""/>
    <tripinfo id="a1_straight_v.1" depart="5.25" departLane="gneE19_0" departPos="5.10" departSpeed="0.00" departDelay="1.25" arrival="93.25" arrivalLane="gneE15_0" arrivalPos="705.97" arrivalSpeed="15.14" duration="88.00" routeLength="1535.24" waitingTime="0.00" waitingCount="0" stopTime="0.00" timeLoss="7.05" rerouteNo="0" devices="tripinfo_a1_straight_v.1" vType="DEFAULT_VEHTYPE" speedFactor="1.09" vaporized=""/>
    <tripinfo id="a2_right_v.1" depart="20.00" departLane="gneE14_1" departPos="5.10" departSpeed="0.00" departDelay="0.00" arrival="96.75" arrivalLane="502199947#0_1" arrivalPos="151.11" arrivalSpeed="14.12" duration="76.75" routeLength="981.34" waitingTime="0.00" waitingCount="0" stopTime="0.00" timeLoss="6.64" rerouteNo="0" devices="tripinfo_a2_right_v.1" vType="DEFAULT_VEHTYPE" speedFactor="1.02" vaporized=""/>
    <tripinfo id="a1_straight_v.2" depart="8.00" departLane="gneE19_0" departPos="5.10" departSpeed="0.00" departDelay="0.00" arrival="98.55" arrivalLane="gneE15_0" arrivalPos="705.97" arrivalSpeed="14.51" duration="90.55" routeLength="1535.24" waitingTime="0.00" waitingCount="0" stopTime="0.00" timeLoss="6.20" rerouteNo="0" devices="tripinfo_a1_straight_v.2" vType="DEFAULT_VEHTYPE" speedFactor="1.05" vaporized=""/>
