<?xml version="1.0" encoding="UTF-8"?>

<!-- generated on Mon 04 May 2020 01:30:33 PM PDT by Eclipse SUMO GUI Version 1.5.0
<configuration xmlns:xsi="http://www.w3.org/2001/XMLSchema-instance" xsi:noNamespaceSchemaLocation="http://sumo.dlr.de/xsd/sumoConfiguration.xsd">

    <input>
        <net-file value="sumo/intersections/aarhus_intersection/osm.net.xml"/>
        <route-files value="sumo/intersections/aarhus_intersection/osm.rou.xml"/>
        <additional-files value="sumo/intersections/aarhus_intersection/osm.poly.xml"/>
    </input>

    <output>
        <tripinfo-output value="tripinfo.xml"/>
    </output>

    <time>
        <step-length value="0.05"/>
    </time>

    <processing>
        <ignore-route-errors value="false"/>
    </processing>

    <routing>
        <device.rerouting.adaptation-steps value="180"/>
    </routing>

    <report>
        <verbose value="true"/>
        <duration-log.statistics value="true"/>
        <no-step-log value="true"/>
    </report>

    <traci_server>
        <remote-port value="46421"/>
    </traci_server>

    <gui_only>
        <gui-settings-file value="sumo/intersections/aarhus_intersection/osm.view.xml"/>
        <tracker-interval value="0.05"/>
    </gui_only>

</configuration>
-->

<tripinfos xmlns:xsi="http://www.w3.org/2001/XMLSchema-instance" xsi:noNamespaceSchemaLocation="http://sumo.dlr.de/xsd/tripinfo_file.xsd">
    <tripinfo id="a1_left_v.0" depart="0.00" departLane="gneE19_0" departPos="5.10" departSpeed="0.00" departDelay="0.00" arrival="58.25" arrivalLane="gneE4_1" arrivalPos="105.71" arrivalSpeed="14.71" duration="58.25" routeLength="942.89" waitingTime="2.90" waitingCount="1" stopTime="0.00" timeLoss="14.37" rerouteNo="0" devices="tripinfo_a1_left_v.0" vType="DEFAULT_VEHTYPE" speedFactor="1.06" vaporized=""/>
    <tripinfo id="b_left_v.0" depart="0.00" departLane="-502199947#0_0" departPos="5.10" departSpeed="0.00" departDelay="0.00" arrival="72.15" arrivalLane="gneE15_0" arrivalPos="705.97" arrivalSpeed="14.50" duration="72.15" routeLength="992.08" waitingTime="0.00" waitingCount="0" stopTime="0.00" timeLoss="6.18" rerouteNo="0" devices="tripinfo_b_left_v.0" vType="DEFAULT_VEHTYPE" speedFactor="1.05" vaporized=""/>
    <tripinfo id="a2_right_v.0" depart="0.00" departLane="gneE14_1" departPos="5.10" departSpeed="0.00" departDelay="0.00" arrival="79.75" arrivalLane="502199947#0_1" arrivalPos="151.11" arrivalSpeed="15.03" duration="79.75" routeLength="981.34" waitingTime="5.60" waitingCount="1" stopTime="0.00" timeLoss="13.81" rerouteNo="0" devices="tripinfo_a2_right_v.0" vType="DEFAULT_VEHTYPE" speedFactor="1.08" vaporized=""/>
    <tripinfo id="bike_straight_b.0" depart="0.00" departLane="24095610_0" departPos="1.70" departSpeed="0.00" departDelay="0.00" arrival="89.55" arrivalLane="502199947#0_0" arrivalPos="151.11" arrivalSpeed="5.55" duration="89.55" routeLength="376.96" waitingTime="14.90" waitingCount="2" stopTime="0.00" timeLoss="21.70" rerouteNo="0" devices="tripinfo_bike_straight_b.0" vType="DEFAULT_BIKETYPE" speedFactor="0.86" vaporized=""/>
    <tripinfo id="a1_straight_v.1" depart="5.25" departLane="gneE19_0" departPos="5.10" departSpeed="0.00" departDelay="1.25" arrival="94.80" arrivalLane="gneE15_0" arrivalPos="705.97" arrivalSpeed="15.12" duration="89.55" routeLength="1535.24" waitingTime="0.00" waitingCount="0" stopTime="0.00" timeLoss="8.58" rerouteNo="0" devices="tripinfo_a1_straight_v.1" vType="DEFAULT_VEHTYPE" speedFactor="1.09" vaporized=""/>
    <tripinfo id="a2_right_v.1" depart="20.00" departLane="gneE14_1" departPos="5.10" departSpeed="0.00" departDelay="0.00" arrival="96.05" arrivalLane="502199947#0_1" arrivalPos="151.11" arrivalSpeed="14.11" duration="76.05" routeLength="981.34" waitingTime="0.00" waitingCount="0" stopTime="0.00" timeLoss="5.93" rerouteNo="0" devices="tripinfo_a2_right_v.1" vType="DEFAULT_VEHTYPE" speedFactor="1.02" vaporized=""/>
    <tripinfo id="a1_straight_v.2" depart="8.00" departLane="gneE19_0" departPos="5.10" departSpeed="0.00" departDelay="0.00" arrival="99.45" arrivalLane="gneE15_0" arrivalPos="705.97" arrivalSpeed="14.51" duration="91.45" routeLength="1535.24" waitingTime="0.00" waitingCount="0" stopTime="0.00" timeLoss="7.11" rerouteNo="0" devices="tripinfo_a1_straight_v.2" vType="DEFAULT_VEHTYPE" speedFactor="1.05" vaporized=""/>
    <tripinfo id="a1_straight_v.0" depart="2.60" departLane="gneE19_0" departPos="5.10" departSpeed="0.00" departDelay="2.60" arrival="103.20" arrivalLane="gneE15_0" arrivalPos="705.97" arrivalSpeed="12.99" duration="100.60" routeLength="1535.24" waitingTime="0.00" waitingCount="0" stopTime="0.00" timeLoss="6.48" rerouteNo="0" devices="tripinfo_a1_straight_v.0" vType="DEFAULT_VEHTYPE" speedFactor="0.94" vaporized=""/>
    <tripinfo id="a1_straight_v.3" depart="12.00" departLane="gneE19_0" departPos="5.10" departSpeed="0.00" departDelay="0.00" arrival="106.80" arrivalLane="gneE15_0" arrivalPos="705.97" arrivalSpeed="13.71" duration="94.80" routeLength="1535.24" waitingTime="0.00" waitingCount="0" stopTime="0.00" timeLoss="5.73" rerouteNo="0" devices="tripinfo_a1_straight_v.3" vType="DEFAULT_VEHTYPE" speedFactor="0.99" vaporized=""/>
    <tripinfo id="a2_right_v.2" depart="40.00" departLane="gneE14_1" departPos="5.10" departSpeed="0.00" departDelay="0.00" arrival="108.60" arrivalLane="502199947#0_1" arrivalPos="151.11" arrivalSpeed="16.25" duration="68.60" routeLength="981.34" waitingTime="0.00" waitingCount="0" stopTime="0.00" timeLoss="7.64" rerouteNo="0" devices="tripinfo_a2_right_v.2" vType="DEFAULT_VEHTYPE" speedFactor="1.17" vaporized=""/>
    <tripinfo id="a1_left_v.1" depart="20.00" departLane="gneE19_0" departPos="5.10" departSpeed="0.00" departDelay="0.00" arrival="110.05" arrivalLane="gneE4_1" arrivalPos="105.71" arrivalSpeed="12.98" duration="90.05" routeLength="942.89" waitingTime="30.35" waitingCount="1" stopTime="0.00" timeLoss="40.39" rerouteNo="0" devices="tripinfo_a1_left_v.1" vType="DEFAULT_VEHTYPE" speedFactor="0.94" vaporized=""/>
    <tripinfo id="a1_left_v.2" depart="40.00" departLane="gneE19_0" departPos="5.10" departSpeed="0.00" departDelay="0.00" arrival="111.45" arrivalLane="gneE4_1" arrivalPos="105.71" arrivalSpeed="15.34" duration="71.45" routeLength="942.89" waitingTime="12.15" waitingCount="1" stopTime="0.00" timeLoss="31.17" rerouteNo="0" devices="tripinfo_a1_left_v.2" vType="DEFAULT_VEHTYPE" speedFactor="1.15" vaporized=""/>
