<?xml version="1.0" encoding="UTF-8"?>

<!-- generated on Mon 04 May 2020 12:39:10 AM PDT by Eclipse SUMO GUI Version 1.5.0
<configuration xmlns:xsi="http://www.w3.org/2001/XMLSchema-instance" xsi:noNamespaceSchemaLocation="http://sumo.dlr.de/xsd/sumoConfiguration.xsd">

    <input>
        <net-file value="sumo/intersections/aarhus_intersection/osm.net.xml"/>
        <route-files value="sumo/intersections/aarhus_intersection/osm.rou.xml"/>
        <additional-files value="sumo/intersections/aarhus_intersection/osm.poly.xml"/>
    </input>

    <output>
        <tripinfo-output value="tripinfo.xml"/>
    </output>

    <processing>
        <ignore-route-errors value="false"/>
    </processing>

    <routing>
        <device.rerouting.adaptation-steps value="180"/>
    </routing>

    <report>
        <verbose value="true"/>
        <duration-log.statistics value="true"/>
        <no-step-log value="true"/>
    </report>

    <traci_server>
        <remote-port value="42321"/>
    </traci_server>

    <gui_only>
        <gui-settings-file value="sumo/intersections/aarhus_intersection/osm.view.xml"/>
    </gui_only>

</configuration>
-->

<tripinfos xmlns:xsi="http://www.w3.org/2001/XMLSchema-instance" xsi:noNamespaceSchemaLocation="http://sumo.dlr.de/xsd/tripinfo_file.xsd">
    <tripinfo id="a1_left_v.0" depart="0.00" departLane="gneE19_0" departPos="5.10" departSpeed="0.00" departDelay="0.00" arrival="52.00" arrivalLane="gneE4_1" arrivalPos="105.71" arrivalSpeed="13.97" duration="52.00" routeLength="942.89" waitingTime="0.00" waitingCount="0" stopTime="0.00" timeLoss="7.52" rerouteNo="0" devices="tripinfo_a1_left_v.0" vType="DEFAULT_VEHTYPE" speedFactor="1.06" vaporized=""/>
    <tripinfo id="a2_right_v.0" depart="0.00" departLane="gneE14_1" departPos="5.10" departSpeed="0.00" departDelay="0.00" arrival="75.00" arrivalLane="502199947#0_1" arrivalPos="151.11" arrivalSpeed="14.17" duration="75.00" routeLength="981.34" waitingTime="0.00" waitingCount="0" stopTime="0.00" timeLoss="8.82" rerouteNo="0" devices="tripinfo_a2_right_v.0" vType="DEFAULT_VEHTYPE" speedFactor="1.08" vaporized=""/>
    <tripinfo id="bike_straight_b.0" depart="0.00" departLane="24095610_0" departPos="1.70" departSpeed="0.00" departDelay="0.00" arrival="75.00" arrivalLane="502199947#0_0" arrivalPos="151.11" arrivalSpeed="5.56" duration="75.00" routeLength="376.96" waitingTime="0.00" waitingCount="0" stopTime="0.00" timeLoss="6.24" rerouteNo="0" devices="tripinfo_bike_straight_b.0" vType="DEFAULT_BIKETYPE" speedFactor="0.86" vaporized=""/>
    <tripinfo id="b_left_v.0" depart="0.00" departLane="-502199947#0_0" departPos="5.10" departSpeed="0.00" departDelay="0.00" arrival="84.00" arrivalLane="gneE15_0" arrivalPos="705.97" arrivalSpeed="14.35" duration="84.00" routeLength="992.08" waitingTime="4.00" waitingCount="1" stopTime="0.00" timeLoss="17.63" rerouteNo="0" devices="tripinfo_b_left_v.0" vType="DEFAULT_VEHTYPE" speedFactor="1.05" vaporized=""/>
    <tripinfo id="a1_straight_v.1" depart="6.00" departLane="gneE19_0" departPos="5.10" departSpeed="0.00" departDelay="2.00" arrival="97.00" arrivalLane="gneE15_0" arrivalPos="705.97" arrivalSpeed="14.84" duration="91.00" routeLength="1535.24" waitingTime="0.00" waitingCount="0" stopTime="0.00" timeLoss="9.54" rerouteNo="0" devices="tripinfo_a1_straight_v.1" vType="DEFAULT_VEHTYPE" speedFactor="1.09" vaporized=""/>
    <tripinfo id="a2_right_v.1" depart="20.00" departLane="gneE14_1" departPos="5.10" departSpeed="0.00" departDelay="0.00" arrival="101.00" arrivalLane="502199947#0_1" arrivalPos="151.11" arrivalSpeed="12.95" duration="81.00" routeLength="981.34" waitingTime="0.00" waitingCount="0" stopTime="0.00" timeLoss="10.53" rerouteNo="0" devices="tripinfo_a2_right_v.1" vType="DEFAULT_VEHTYPE" speedFactor="1.02" vaporized=""/>
    <tripinfo id="a1_straight_v.2" depart="9.00" departLane="gneE19_0" departPos="5.10" departSpeed="0.00" departDelay="1.00" arrival="102.00" arrivalLane="gneE15_0" arrivalPos="705.97" arrivalSpeed="13.35" duration="93.00" routeLength="1535.24" waitingTime="0.00" waitingCount="0" stopTime="0.00" timeLoss="8.28" rerouteNo="0" devices="tripinfo_a1_straight_v.2" vType="DEFAULT_VEHTYPE" speedFactor="1.05" vaporized=""/>
    <tripinfo id="a1_straight_v.0" depart="3.00" departLane="gneE19_0" departPos="5.10" departSpeed="0.00" departDelay="3.00" arrival="107.00" arrivalLane="gneE15_0" arrivalPos="705.97" arrivalSpeed="12.44" duration="104.00" routeLength="1535.24" waitingTime="0.00" waitingCount="0" stopTime="0.00" timeLoss="9.80" rerouteNo="0" devices="tripinfo_a1_straight_v.0" vType="DEFAULT_VEHTYPE" speedFactor="0.94" vaporized=""/>
    <tripinfo id="a1_left_v.1" depart="20.00" departLane="gneE19_0" departPos="5.10" departSpeed="0.00" departDelay="0.00" arrival="107.00" arrivalLane="gneE4_1" arrivalPos="105.71" arrivalSpeed="12.76" duration="87.00" routeLength="942.89" waitingTime="24.00" waitingCount="1" stopTime="0.00" timeLoss="36.36" rerouteNo="0" devices="tripinfo_a1_left_v.1" vType="DEFAULT_VEHTYPE" speedFactor="0.94" vaporized=""/>
    <tripinfo id="a1_left_v.2" depart="40.00" departLane="gneE19_0" departPos="5.10" departSpeed="0.00" departDelay="0.00" arrival="108.00" arrivalLane="gneE4_1" arrivalPos="105.71" arrivalSpeed="13.97" duration="68.00" routeLength="942.89" waitingTime="11.00" waitingCount="1" stopTime="0.00" timeLoss="27.43" rerouteNo="0" devices="tripinfo_a1_left_v.2" vType="DEFAULT_VEHTYPE" speedFactor="1.15" vaporized=""/>
    <tripinfo id="a1_straight_v.3" depart="12.00" departLane="gneE19_0" departPos="5.10" departSpeed="0.00" departDelay="0.00" arrival="111.00" arrivalLane="gneE15_0" arrivalPos="705.97" arrivalSpeed="12.59" duration="99.00" routeLength="1535.24" waitingTime="0.00" waitingCount="0" stopTime="0.00" timeLoss="9.16" rerouteNo="0" devices="tripinfo_a1_straight_v.3" vType="DEFAULT_VEHTYPE" speedFactor="0.99" vaporized=""/>
    <tripinfo id="a1_left_v.3" depart="60.00" departLane="gneE19_0" departPos="5.10" departSpeed="0.00" departDelay="0.00" arrival="113.00" arrivalLane="gneE4_1" arrivalPos="105.71" arrivalSpeed="13.28" duration="53.00" routeLength="942.89" waitingTime="0.00" waitingCount="0" stopTime="0.00" timeLoss="7.69" rerouteNo="0" devices="tripinfo_a1_left_v.3" vType="DEFAULT_VEHTYPE" speedFactor="1.04" vaporized=""/>
    <tripinfo id="a2_straight_v.2" depart="9.00" departLane="gneE14_1" departPos="5.10" departSpeed="0.00" departDelay="1.00" arrival="116.00" arrivalLane="gneE6_2" arrivalPos="820.30" arrivalSpeed="14.81" duration="107.00" routeLength="1540.73" waitingTime="0.00" waitingCount="0" stopTime="0.00" timeLoss="7.83" rerouteNo="0" devices="tripinfo_a2_straight_v.2" vType="DEFAULT_VEHTYPE" speedFactor="1.12" vaporized=""/>
    <tripinfo id="a2_straight_v.1" depart="6.00" departLane="gneE14_1" departPos="5.10" departSpeed="0.00" departDelay="2.00" arrival="123.00" arrivalLane="gneE6_2" arrivalPos="820.30" arrivalSpeed="13.26" duration="117.00" routeLength="1540.73" waitingTime="0.00" waitingCount="0" stopTime="0.00" timeLoss="8.53" rerouteNo="0" devices="tripinfo_a2_straight_v.1" vType="DEFAULT_VEHTYPE" speedFactor="1.03" vaporized=""/>
    <tripinfo id="a1_straight_v.4" depart="16.00" departLane="gneE19_0" departPos="5.10" departSpeed="0.00" departDelay="0.00" arrival="126.00" arrivalLane="gneE15_0" arrivalPos="705.97" arrivalSpeed="12.09" duration="110.00" routeLength="1535.24" waitingTime="0.00" waitingCount="0" stopTime="0.00" timeLoss="8.90" rerouteNo="0" devices="tripinfo_a1_straight_v.4" vType="DEFAULT_VEHTYPE" speedFactor="0.88" vaporized=""/>
    <tripinfo id="b_left_v.1" depart="20.00" departLane="-502199947#0_0" departPos="5.10" departSpeed="0.00" departDelay="0.00" arrival="128.00" arrivalLane="gneE15_0" arrivalPos="705.97" arrivalSpeed="13.41" duration="108.00" routeLength="987.17" waitingTime="17.00" waitingCount="1" stopTime="0.00" timeLoss="37.06" rerouteNo="0" devices="tripinfo_b_left_v.1" vType="DEFAULT_VEHTYPE" speedFactor="0.98" vaporized=""/>
    <tripinfo id="b_left_v.2" depart="40.00" departLane="-502199947#0_0" departPos="5.10" departSpeed="0.00" departDelay="0.00" arrival="128.00" arrivalLane="gneE15_1" arrivalPos="705.97" arrivalSpeed="13.68" duration="88.00" routeLength="987.17" waitingTime="7.00" waitingCount="1" stopTime="0.00" timeLoss="20.25" rerouteNo="0" devices="tripinfo_b_left_v.2" vType="DEFAULT_VEHTYPE" speedFactor="1.02" vaporized=""/>
    <tripinfo id="a2_right_v.2" depart="40.00" departLane="gneE14_1" departPos="5.10" departSpeed="0.00" departDelay="0.00" arrival="130.00" arrivalLane="502199947#0_1" arrivalPos="151.11" arrivalSpeed="15.98" duration="90.00" routeLength="981.34" waitingTime="13.00" waitingCount="1" stopTime="0.00" timeLoss="29.19" rerouteNo="0" devices="tripinfo_a2_right_v.2" vType="DEFAULT_VEHTYPE" speedFactor="1.17" vaporized=""/>
    <tripinfo id="a1_straight_v.5" depart="23.00" departLane="gneE19_0" departPos="5.10" departSpeed="0.00" departDelay="3.00" arrival="132.00" arrivalLane="gneE15_0" arrivalPos="705.97" arrivalSpeed="15.55" duration="109.00" routeLength="1535.24" waitingTime="11.00" waitingCount="1" stopTime="0.00" timeLoss="32.01" rerouteNo="0" devices="tripinfo_a1_straight_v.5" vType="DEFAULT_VEHTYPE" speedFactor="1.16" vaporized=""/>
    <tripinfo id="a2_right_v.3" depart="60.00" departLane="gneE14_1" departPos="5.10" departSpeed="0.00" departDelay="0.00" arrival="139.00" arrivalLane="502199947#0_1" arrivalPos="151.11" arrivalSpeed="13.19" duration="79.00" routeLength="981.34" waitingTime="0.00" waitingCount="0" stopTime="0.00" timeLoss="7.32" rerouteNo="0" devices="tripinfo_a2_right_v.3" vType="DEFAULT_VEHTYPE" speedFactor="1.00" vaporized=""/>
    <tripinfo id="b_right_v.0" depart="6.00" departLane="-502199947#0_0" departPos="5.10" departSpeed="0.00" departDelay="6.00" arrival="142.00" arrivalLane="gneE6_2" arrivalPos="820.30" arrivalSpeed="12.19" duration="136.00" routeLength="1092.99" waitingTime="10.00" waitingCount="1" stopTime="0.00" timeLoss="53.75" rerouteNo="0" devices="tripinfo_b_right_v.0" vType="DEFAULT_VEHTYPE" speedFactor="0.94" vaporized=""/>
    <tripinfo id="a1_straight_v.8" depart="32.00" departLane="gneE19_0" departPos="5.10" departSpeed="0.00" departDelay="0.00" arrival="143.00" arrivalLane="gneE15_0" arrivalPos="705.97" arrivalSpeed="12.69" duration="111.00" routeLength="1535.24" waitingTime="3.00" waitingCount="1" stopTime="0.00" timeLoss="17.84" rerouteNo="0" devices="tripinfo_a1_straight_v.8" vType="DEFAULT_VEHTYPE" speedFactor="0.95" vaporized=""/>
    <tripinfo id="a1_straight_v.6" depart="26.00" departLane="gneE19_0" departPos="5.10" departSpeed="0.00" departDelay="2.00" arrival="146.00" arrivalLane="gneE15_0" arrivalPos="705.97" arrivalSpeed="11.54" duration="120.00" routeLength="1535.24" waitingTime="6.00" waitingCount="1" stopTime="0.00" timeLoss="19.87" rerouteNo="0" devices="tripinfo_a1_straight_v.6" vType="DEFAULT_VEHTYPE" speedFactor="0.89" vaporized=""/>
    <tripinfo id="a1_straight_v.9" depart="36.00" departLane="gneE19_0" departPos="5.10" departSpeed="0.00" departDelay="0.00" arrival="147.00" arrivalLane="gneE15_1" arrivalPos="705.97" arrivalSpeed="12.00" duration="111.00" routeLength="1535.24" waitingTime="0.00" waitingCount="0" stopTime="0.00" timeLoss="15.39" rerouteNo="0" devices="tripinfo_a1_straight_v.9" vType="DEFAULT_VEHTYPE" speedFactor="0.93" vaporized=""/>
    <tripinfo id="a2_straight_v.9" depart="36.00" departLane="gneE14_1" departPos="5.10" departSpeed="0.00" departDelay="0.00" arrival="147.00" arrivalLane="gneE6_2" arrivalPos="820.30" arrivalSpeed="15.84" duration="111.00" routeLength="1540.73" waitingTime="0.00" waitingCount="0" stopTime="0.00" timeLoss="16.69" rerouteNo="0" devices="tripinfo_a2_straight_v.9" vType="DEFAULT_VEHTYPE" speedFactor="1.18" vaporized=""/>
    <tripinfo id="a2_straight_v.5" depart="23.00" departLane="gneE14_1" departPos="5.10" departSpeed="0.00" departDelay="3.00" arrival="149.00" arrivalLane="gneE6_2" arrivalPos="820.30" arrivalSpeed="12.80" duration="126.00" routeLength="1540.73" waitingTime="0.00" waitingCount="0" stopTime="0.00" timeLoss="15.49" rerouteNo="0" devices="tripinfo_a2_straight_v.5" vType="DEFAULT_VEHTYPE" speedFactor="1.01" vaporized=""/>
    <tripinfo id="a1_straight_v.7" depart="28.00" departLane="gneE19_0" departPos="5.10" departSpeed="0.00" departDelay="0.00" arrival="149.00" arrivalLane="gneE15_0" arrivalPos="705.97" arrivalSpeed="10.95" duration="121.00" routeLength="1535.24" waitingTime="1.00" waitingCount="1" stopTime="0.00" timeLoss="19.41" rerouteNo="0" devices="tripinfo_a1_straight_v.7" vType="DEFAULT_VEHTYPE" speedFactor="0.87" vaporized=""/>
    <tripinfo id="a1_straight_v.10" depart="43.00" departLane="gneE19_0" departPos="5.10" departSpeed="0.00" departDelay="3.00" arrival="149.00" arrivalLane="gneE15_1" arrivalPos="705.97" arrivalSpeed="13.74" duration="106.00" routeLength="1535.24" waitingTime="0.00" waitingCount="0" stopTime="0.00" timeLoss="17.10" rerouteNo="0" devices="tripinfo_a1_straight_v.10" vType="DEFAULT_VEHTYPE" speedFactor="1.01" vaporized=""/>
    <tripinfo id="a2_straight_v.8" depart="32.00" departLane="gneE14_1" departPos="5.10" departSpeed="0.00" departDelay="0.00" arrival="150.00" arrivalLane="gneE6_3" arrivalPos="820.30" arrivalSpeed="15.52" duration="118.00" routeLength="1540.73" waitingTime="0.00" waitingCount="0" stopTime="0.00" timeLoss="19.52" rerouteNo="0" devices="tripinfo_a2_straight_v.8" vType="DEFAULT_VEHTYPE" speedFactor="1.13" vaporized=""/>
    <tripinfo id="a1_straight_v.12" depart="49.00" departLane="gneE19_0" departPos="5.10" departSpeed="0.00" departDelay="1.00" arrival="150.00" arrivalLane="gneE15_1" arrivalPos="705.97" arrivalSpeed="14.09" duration="101.00" routeLength="1535.24" waitingTime="0.00" waitingCount="0" stopTime="0.00" timeLoss="20.51" rerouteNo="0" devices="tripinfo_a1_straight_v.12" vType="DEFAULT_VEHTYPE" speedFactor="1.10" vaporized=""/>
    <tripinfo id="a1_straight_v.11" depart="46.00" departLane="gneE19_0" departPos="5.10" departSpeed="0.00" departDelay="2.00" arrival="151.00" arrivalLane="gneE15_0" arrivalPos="705.97" arrivalSpeed="13.39" duration="105.00" routeLength="1535.24" waitingTime="0.00" waitingCount="0" stopTime="0.00" timeLoss="13.36" rerouteNo="0" devices="tripinfo_a1_straight_v.11" vType="DEFAULT_VEHTYPE" speedFactor="0.97" vaporized=""/>
    <tripinfo id="a2_straight_v.3" depart="12.00" departLane="gneE14_1" departPos="5.10" departSpeed="0.00" departDelay="0.00" arrival="152.00" arrivalLane="gneE6_2" arrivalPos="820.30" arrivalSpeed="12.27" duration="140.00" routeLength="1540.73" waitingTime="6.00" waitingCount="1" stopTime="0.00" timeLoss="19.82" rerouteNo="0" devices="tripinfo_a2_straight_v.3" vType="DEFAULT_VEHTYPE" speedFactor="0.93" vaporized=""/>
    <tripinfo id="a1_straight_v.13" depart="52.00" departLane="gneE19_0" departPos="5.10" departSpeed="0.00" departDelay="0.00" arrival="152.00" arrivalLane="gneE15_1" arrivalPos="705.97" arrivalSpeed="14.21" duration="100.00" routeLength="1535.24" waitingTime="0.00" waitingCount="0" stopTime="0.00" timeLoss="13.42" rerouteNo="0" devices="tripinfo_a1_straight_v.13" vType="DEFAULT_VEHTYPE" speedFactor="1.03" vaporized=""/>
    <tripinfo id="a1_straight_v.14" depart="56.00" departLane="gneE19_0" departPos="5.10" departSpeed="0.00" departDelay="0.00" arrival="153.00" arrivalLane="gneE15_0" arrivalPos="705.97" arrivalSpeed="14.83" duration="97.00" routeLength="1535.24" waitingTime="0.00" waitingCount="0" stopTime="0.00" timeLoss="15.11" rerouteNo="0" devices="tripinfo_a1_straight_v.14" vType="DEFAULT_VEHTYPE" speedFactor="1.09" vaporized=""/>
    <tripinfo id="a1_straight_v.15" depart="63.00" departLane="gneE19_0" departPos="5.10" departSpeed="0.00" departDelay="3.00" arrival="154.00" arrivalLane="gneE15_1" arrivalPos="705.97" arrivalSpeed="14.90" duration="91.00" routeLength="1535.24" waitingTime="0.00" waitingCount="0" stopTime="0.00" timeLoss="9.26" rerouteNo="0" devices="tripinfo_a1_straight_v.15" vType="DEFAULT_VEHTYPE" speedFactor="1.09" vaporized=""/>
    <tripinfo id="a2_straight_v.4" depart="16.00" departLane="gneE14_1" departPos="5.10" departSpeed="0.00" departDelay="0.00" arrival="156.00" arrivalLane="gneE6_2" arrivalPos="820.30" arrivalSpeed="12.35" duration="140.00" routeLength="1540.73" waitingTime="3.00" waitingCount="1" stopTime="0.00" timeLoss="22.01" rerouteNo="0" devices="tripinfo_a2_straight_v.4" vType="DEFAULT_VEHTYPE" speedFactor="0.94" vaporized=""/>
    <tripinfo id="a2_right_v.4" depart="80.00" departLane="gneE14_1" departPos="5.10" departSpeed="0.00" departDelay="0.00" arrival="156.00" arrivalLane="502199947#0_1" arrivalPos="151.11" arrivalSpeed="14.81" duration="76.00" routeLength="981.34" waitingTime="0.00" waitingCount="0" stopTime="0.00" timeLoss="9.42" rerouteNo="0" devices="tripinfo_a2_right_v.4" vType="DEFAULT_VEHTYPE" speedFactor="1.08" vaporized=""/>
    <tripinfo id="a2_straight_v.0" depart="3.00" departLane="gneE14_1" departPos="5.10" departSpeed="0.00" departDelay="3.00" arrival="159.00" arrivalLane="gneE6_2" arrivalPos="820.30" arrivalSpeed="11.29" duration="156.00" routeLength="1540.73" waitingTime="6.00" waitingCount="1" stopTime="0.00" timeLoss="22.03" rerouteNo="0" devices="tripinfo_a2_straight_v.0" vType="DEFAULT_VEHTYPE" speedFactor="0.83" vaporized=""/>
    <tripinfo id="a2_straight_v.11" depart="46.00" departLane="gneE14_1" departPos="5.10" departSpeed="0.00" departDelay="2.00" arrival="166.00" arrivalLane="gneE6_2" arrivalPos="820.30" arrivalSpeed="16.34" duration="120.00" routeLength="1540.73" waitingTime="11.00" waitingCount="1" stopTime="0.00" timeLoss="25.56" rerouteNo="0" devices="tripinfo_a2_straight_v.11" vType="DEFAULT_VEHTYPE" speedFactor="1.18" vaporized=""/>
    <tripinfo id="a1_straight_v.17" depart="69.00" departLane="gneE19_0" departPos="5.10" departSpeed="0.00" departDelay="1.00" arrival="166.00" arrivalLane="gneE15_0" arrivalPos="705.97" arrivalSpeed="13.58" duration="97.00" routeLength="1535.24" waitingTime="0.00" waitingCount="0" stopTime="0.00" timeLoss="9.61" rerouteNo="0" devices="tripinfo_a1_straight_v.17" vType="DEFAULT_VEHTYPE" speedFactor="1.02" vaporized=""/>
    <tripinfo id="a1_left_v.4" depart="80.00" departLane="gneE19_0" departPos="5.10" departSpeed="0.00" departDelay="0.00" arrival="170.00" arrivalLane="gneE4_1" arrivalPos="105.71" arrivalSpeed="13.45" duration="90.00" routeLength="942.89" waitingTime="31.00" waitingCount="1" stopTime="0.00" timeLoss="44.13" rerouteNo="0" devices="tripinfo_a1_left_v.4" vType="DEFAULT_VEHTYPE" speedFactor="1.02" vaporized=""/>
    <tripinfo id="a1_straight_v.18" depart="72.00" departLane="gneE19_0" departPos="5.10" departSpeed="0.00" departDelay="0.00" arrival="171.00" arrivalLane="gneE15_0" arrivalPos="705.97" arrivalSpeed="13.01" duration="99.00" routeLength="1535.24" waitingTime="0.00" waitingCount="0" stopTime="0.00" timeLoss="10.49" rerouteNo="0" devices="tripinfo_a1_straight_v.18" vType="DEFAULT_VEHTYPE" speedFactor="1.00" vaporized=""/>
    <tripinfo id="a1_left_v.5" depart="100.00" departLane="gneE19_0" departPos="5.10" departSpeed="0.00" departDelay="0.00" arrival="173.00" arrivalLane="gneE4_1" arrivalPos="105.71" arrivalSpeed="12.88" duration="73.00" routeLength="942.89" waitingTime="11.00" waitingCount="1" stopTime="0.00" timeLoss="24.71" rerouteNo="0" devices="tripinfo_a1_left_v.5" vType="DEFAULT_VEHTYPE" speedFactor="0.97" vaporized=""/>
    <tripinfo id="a1_left_v.6" depart="120.00" departLane="gneE19_0" departPos="5.10" departSpeed="0.00" departDelay="0.00" arrival="174.00" arrivalLane="gneE4_1" arrivalPos="105.71" arrivalSpeed="14.96" duration="54.00" routeLength="942.89" waitingTime="0.00" waitingCount="0" stopTime="0.00" timeLoss="13.42" rerouteNo="0" devices="tripinfo_a1_left_v.6" vType="DEFAULT_VEHTYPE" speedFactor="1.15" vaporized=""/>
    <tripinfo id="a2_straight_v.10" depart="43.00" departLane="gneE14_1" departPos="5.10" departSpeed="0.00" departDelay="3.00" arrival="178.00" arrivalLane="gneE6_2" arrivalPos="820.30" arrivalSpeed="12.57" duration="135.00" routeLength="1540.73" waitingTime="8.00" waitingCount="1" stopTime="0.00" timeLoss="22.62" rerouteNo="0" devices="tripinfo_a2_straight_v.10" vType="DEFAULT_VEHTYPE" speedFactor="0.99" vaporized=""/>
    <tripinfo id="a1_straight_v.16" depart="66.00" departLane="gneE19_0" departPos="5.10" departSpeed="0.00" departDelay="2.00" arrival="179.00" arrivalLane="gneE15_0" arrivalPos="705.97" arrivalSpeed="11.67" duration="113.00" routeLength="1535.24" waitingTime="0.00" waitingCount="0" stopTime="0.00" timeLoss="9.62" rerouteNo="0" devices="tripinfo_a1_straight_v.16" vType="DEFAULT_VEHTYPE" speedFactor="0.85" vaporized=""/>
    <tripinfo id="a2_straight_v.7" depart="29.00" departLane="gneE14_1" departPos="5.10" departSpeed="0.00" departDelay="1.00" arrival="181.00" arrivalLane="gneE6_2" arrivalPos="820.30" arrivalSpeed="12.43" duration="152.00" routeLength="1540.73" waitingTime="15.00" waitingCount="1" stopTime="0.00" timeLoss="30.75" rerouteNo="0" devices="tripinfo_a2_straight_v.7" vType="DEFAULT_VEHTYPE" speedFactor="0.92" vaporized=""/>
    <tripinfo id="b_left_v.4" depart="80.00" departLane="-502199947#0_0" departPos="5.10" departSpeed="0.00" departDelay="0.00" arrival="181.00" arrivalLane="gneE15_1" arrivalPos="705.97" arrivalSpeed="13.62" duration="101.00" routeLength="987.17" waitingTime="19.00" waitingCount="1" stopTime="0.00" timeLoss="32.99" rerouteNo="0" devices="tripinfo_b_left_v.4" vType="DEFAULT_VEHTYPE" speedFactor="1.02" vaporized=""/>
    <tripinfo id="a2_straight_v.13" depart="52.00" departLane="gneE14_1" departPos="5.10" departSpeed="0.00" departDelay="0.00" arrival="182.00" arrivalLane="gneE6_3" arrivalPos="820.30" arrivalSpeed="13.15" duration="130.00" routeLength="1540.73" waitingTime="0.00" waitingCount="0" stopTime="0.00" timeLoss="13.79" rerouteNo="0" devices="tripinfo_a2_straight_v.13" vType="DEFAULT_VEHTYPE" speedFactor="0.96" vaporized=""/>
    <tripinfo id="a2_straight_v.14" depart="56.00" departLane="gneE14_1" departPos="5.10" departSpeed="0.00" departDelay="0.00" arrival="183.00" arrivalLane="gneE6_2" arrivalPos="820.30" arrivalSpeed="13.46" duration="127.00" routeLength="1540.73" waitingTime="0.00" waitingCount="0" stopTime="0.00" timeLoss="19.51" rerouteNo="0" devices="tripinfo_a2_straight_v.14" vType="DEFAULT_VEHTYPE" speedFactor="1.04" vaporized=""/>
    <tripinfo id="b_left_v.5" depart="100.00" departLane="-502199947#0_0" departPos="5.10" departSpeed="0.00" departDelay="0.00" arrival="184.00" arrivalLane="gneE15_0" arrivalPos="705.97" arrivalSpeed="12.66" duration="84.00" routeLength="987.17" waitingTime="0.00" waitingCount="0" stopTime="0.00" timeLoss="14.04" rerouteNo="0" devices="tripinfo_b_left_v.5" vType="DEFAULT_VEHTYPE" speedFactor="0.98" vaporized=""/>
    <tripinfo id="a2_straight_v.12" depart="49.00" departLane="gneE14_1" departPos="5.10" departSpeed="0.00" departDelay="1.00" arrival="188.00" arrivalLane="gneE6_2" arrivalPos="820.30" arrivalSpeed="11.21" duration="139.00" routeLength="1540.73" waitingTime="0.00" waitingCount="0" stopTime="0.00" timeLoss="15.75" rerouteNo="0" devices="tripinfo_a2_straight_v.12" vType="DEFAULT_VEHTYPE" speedFactor="0.90" vaporized=""/>
    <tripinfo id="b_left_v.3" depart="60.00" departLane="-502199947#0_0" departPos="5.10" departSpeed="0.00" departDelay="0.00" arrival="190.00" arrivalLane="gneE15_0" arrivalPos="705.97" arrivalSpeed="11.23" duration="130.00" routeLength="992.08" waitingTime="39.00" waitingCount="1" stopTime="0.00" timeLoss="50.72" rerouteNo="0" devices="tripinfo_b_left_v.3" vType="DEFAULT_VEHTYPE" speedFactor="0.88" vaporized=""/>
    <tripinfo id="a2_straight_v.6" depart="26.00" departLane="gneE14_1" departPos="5.10" departSpeed="0.00" departDelay="2.00" arrival="191.00" arrivalLane="gneE6_2" arrivalPos="820.30" arrivalSpeed="10.29" duration="165.00" routeLength="1540.73" waitingTime="15.00" waitingCount="1" stopTime="0.00" timeLoss="30.52" rerouteNo="0" devices="tripinfo_a2_straight_v.6" vType="DEFAULT_VEHTYPE" speedFactor="0.83" vaporized=""/>
    <tripinfo id="a2_straight_v.16" depart="66.00" departLane="gneE14_1" departPos="5.10" departSpeed="0.00" departDelay="2.00" arrival="193.00" arrivalLane="gneE6_3" arrivalPos="820.30" arrivalSpeed="15.19" duration="127.00" routeLength="1540.73" waitingTime="15.00" waitingCount="1" stopTime="0.00" timeLoss="31.31" rerouteNo="0" devices="tripinfo_a2_straight_v.16" vType="DEFAULT_VEHTYPE" speedFactor="1.17" vaporized=""/>
    <tripinfo id="a2_right_v.5" depart="100.00" departLane="gneE14_1" departPos="5.10" departSpeed="0.00" departDelay="0.00" arrival="193.00" arrivalLane="502199947#0_1" arrivalPos="151.11" arrivalSpeed="13.89" duration="93.00" routeLength="981.34" waitingTime="15.00" waitingCount="1" stopTime="0.00" timeLoss="25.14" rerouteNo="0" devices="tripinfo_a2_right_v.5" vType="DEFAULT_VEHTYPE" speedFactor="1.06" vaporized=""/>
    <tripinfo id="a1_straight_v.21" depart="86.00" departLane="gneE19_0" departPos="5.10" departSpeed="0.00" departDelay="2.00" arrival="194.00" arrivalLane="gneE15_0" arrivalPos="705.97" arrivalSpeed="13.32" duration="108.00" routeLength="1535.24" waitingTime="2.00" waitingCount="1" stopTime="0.00" timeLoss="18.41" rerouteNo="0" devices="tripinfo_a1_straight_v.21" vType="DEFAULT_VEHTYPE" speedFactor="0.99" vaporized=""/>
    <tripinfo id="a2_right_b.0" depart="0.00" departLane="gneE14_0" departPos="1.70" departSpeed="0.00" departDelay="0.00" arrival="195.00" arrivalLane="502199947#0_0" arrivalPos="151.11" arrivalSpeed="5.26" duration="195.00" routeLength="981.06" waitingTime="2.00" waitingCount="1" stopTime="0.00" timeLoss="18.23" rerouteNo="0" devices="tripinfo_a2_right_b.0" vType="DEFAULT_BIKETYPE" speedFactor="1.01" vaporized=""/>
    <tripinfo id="a2_straight_v.19" depart="76.00" departLane="gneE14_1" departPos="5.10" departSpeed="0.00" departDelay="0.00" arrival="196.00" arrivalLane="gneE6_2" arrivalPos="820.30" arrivalSpeed="14.94" duration="120.00" routeLength="1540.73" waitingTime="8.00" waitingCount="1" stopTime="0.00" timeLoss="22.19" rerouteNo="0" devices="tripinfo_a2_straight_v.19" vType="DEFAULT_VEHTYPE" speedFactor="1.14" vaporized=""/>
    <tripinfo id="a1_straight_v.20" depart="83.00" departLane="gneE19_0" departPos="5.10" departSpeed="0.00" departDelay="3.00" arrival="198.00" arrivalLane="gneE15_0" arrivalPos="705.97" arrivalSpeed="13.45" duration="115.00" routeLength="1535.24" waitingTime="7.00" waitingCount="1" stopTime="0.00" timeLoss="23.49" rerouteNo="0" devices="tripinfo_a1_straight_v.20" vType="DEFAULT_VEHTYPE" speedFactor="0.97" vaporized=""/>
    <tripinfo id="a2_straight_v.20" depart="83.00" departLane="gneE14_1" departPos="5.10" departSpeed="0.00" departDelay="3.00" arrival="199.00" arrivalLane="gneE6_2" arrivalPos="820.30" arrivalSpeed="14.70" duration="116.00" routeLength="1540.73" waitingTime="1.00" waitingCount="1" stopTime="0.00" timeLoss="16.36" rerouteNo="0" devices="tripinfo_a2_straight_v.20" vType="DEFAULT_VEHTYPE" speedFactor="1.12" vaporized=""/>
    <tripinfo id="a1_straight_v.19" depart="76.00" departLane="gneE19_0" departPos="5.10" departSpeed="0.00" departDelay="0.00" arrival="200.00" arrivalLane="gneE15_0" arrivalPos="705.97" arrivalSpeed="11.53" duration="124.00" routeLength="1535.24" waitingTime="9.00" waitingCount="1" stopTime="0.00" timeLoss="25.05" rerouteNo="0" devices="tripinfo_a1_straight_v.19" vType="DEFAULT_VEHTYPE" speedFactor="0.90" vaporized=""/>
    <tripinfo id="a2_straight_v.17" depart="69.00" departLane="gneE14_1" departPos="5.10" departSpeed="0.00" departDelay="1.00" arrival="201.00" arrivalLane="gneE6_3" arrivalPos="820.30" arrivalSpeed="14.37" duration="132.00" routeLength="1540.73" waitingTime="11.00" waitingCount="1" stopTime="0.00" timeLoss="30.04" rerouteNo="0" devices="tripinfo_a2_straight_v.17" vType="DEFAULT_VEHTYPE" speedFactor="1.10" vaporized=""/>
    <tripinfo id="a2_right_v.6" depart="120.00" departLane="gneE14_1" departPos="5.10" departSpeed="0.00" departDelay="0.00" arrival="201.00" arrivalLane="502199947#0_1" arrivalPos="151.11" arrivalSpeed="13.91" duration="81.00" routeLength="981.34" waitingTime="0.00" waitingCount="0" stopTime="0.00" timeLoss="8.89" rerouteNo="0" devices="tripinfo_a2_right_v.6" vType="DEFAULT_VEHTYPE" speedFactor="1.00" vaporized=""/>
    <tripinfo id="b_right_v.1" depart="62.00" departLane="-502199947#0_0" departPos="5.10" departSpeed="0.00" departDelay="2.00" arrival="203.00" arrivalLane="gneE6_2" arrivalPos="820.30" arrivalSpeed="10.63" duration="141.00" routeLength="1092.99" waitingTime="36.00" waitingCount="1" stopTime="0.00" timeLoss="51.11" rerouteNo="0" devices="tripinfo_b_right_v.1" vType="DEFAULT_VEHTYPE" speedFactor="0.85" vaporized=""/>
    <tripinfo id="a1_straight_v.22" depart="89.00" departLane="gneE19_0" departPos="5.10" departSpeed="0.00" departDelay="1.00" arrival="203.00" arrivalLane="gneE15_0" arrivalPos="705.97" arrivalSpeed="12.05" duration="114.00" routeLength="1535.24" waitingTime="0.00" waitingCount="0" stopTime="0.00" timeLoss="13.50" rerouteNo="0" devices="tripinfo_a1_straight_v.22" vType="DEFAULT_VEHTYPE" speedFactor="0.88" vaporized=""/>
    <tripinfo id="a1_straight_v.23" depart="92.00" departLane="gneE19_0" departPos="5.10" departSpeed="0.00" departDelay="0.00" arrival="203.00" arrivalLane="gneE15_1" arrivalPos="705.97" arrivalSpeed="11.97" duration="111.00" routeLength="1535.24" waitingTime="0.00" waitingCount="0" stopTime="0.00" timeLoss="13.73" rerouteNo="0" devices="tripinfo_a1_straight_v.23" vType="DEFAULT_VEHTYPE" speedFactor="0.91" vaporized=""/>