<?xml version="1.0" encoding="UTF-8"?>

<!-- generated on Mon 04 May 2020 08:28:07 AM PDT by Eclipse SUMO GUI Version 1.5.0
<configuration xmlns:xsi="http://www.w3.org/2001/XMLSchema-instance" xsi:noNamespaceSchemaLocation="http://sumo.dlr.de/xsd/sumoConfiguration.xsd">

    <input>
        <net-file value="sumo/intersections/aarhus_intersection/osm.net.xml"/>
        <route-files value="sumo/intersections/aarhus_intersection/osm.rou.xml"/>
        <additional-files value="sumo/intersections/aarhus_intersection/osm.poly.xml"/>
    </input>

    <output>
        <tripinfo-output value="tripinfo.xml"/>
    </output>

    <time>
        <step-length value="0.05"/>
    </time>

    <processing>
        <ignore-route-errors value="false"/>
    </processing>

    <routing>
        <device.rerouting.adaptation-steps value="180"/>
    </routing>

    <report>
        <verbose value="true"/>
        <duration-log.statistics value="true"/>
        <no-step-log value="true"/>
    </report>

    <traci_server>
        <remote-port value="50063"/>
    </traci_server>

    <gui_only>
        <gui-settings-file value="sumo/intersections/aarhus_intersection/osm.view.xml"/>
        <tracker-interval value="0.05"/>
    </gui_only>

</configuration>
-->

<tripinfos xmlns:xsi="http://www.w3.org/2001/XMLSchema-instance" xsi:noNamespaceSchemaLocation="http://sumo.dlr.de/xsd/tripinfo_file.xsd">
    <tripinfo id="a1_left_v.0" depart="0.00" departLane="gneE19_0" departPos="5.10" departSpeed="0.00" departDelay="0.00" arrival="51.25" arrivalLane="gneE4_1" arrivalPos="105.71" arrivalSpeed="14.72" duration="51.25" routeLength="942.89" waitingTime="0.00" waitingCount="0" stopTime="0.00" timeLoss="7.40" rerouteNo="0" devices="tripinfo_a1_left_v.0" vType="DEFAULT_VEHTYPE" speedFactor="1.06" vaporized=""/>
    <tripinfo id="bike_straight_b.0" depart="0.00" departLane="24095610_0" departPos="1.70" departSpeed="0.00" departDelay="0.00" arrival="71.00" arrivalLane="502199947#0_0" arrivalPos="151.11" arrivalSpeed="5.55" duration="71.00" routeLength="376.96" waitingTime="0.05" waitingCount="1" stopTime="0.00" timeLoss="3.15" rerouteNo="0" devices="tripinfo_bike_straight_b.0" vType="DEFAULT_BIKETYPE" speedFactor="0.86" vaporized=""/>
    <tripinfo id="a2_right_v.0" depart="0.00" departLane="gneE14_1" departPos="5.10" departSpeed="0.00" departDelay="0.00" arrival="73.00" arrivalLane="502199947#0_1" arrivalPos="151.11" arrivalSpeed="15.03" duration="73.00" routeLength="981.34" waitingTime="0.00" waitingCount="0" stopTime="0.00" timeLoss="7.07" rerouteNo="0" devices="tripinfo_a2_right_v.0" vType="DEFAULT_VEHTYPE" speedFactor="1.08" vaporized=""/>
    <tripinfo id="b_left_v.0" depart="0.00" departLane="-502199947#0_0" departPos="5.10" departSpeed="0.00" departDelay="0.00" arrival="81.05" arrivalLane="gneE15_0" arrivalPos="705.97" arrivalSpeed="14.52" duration="81.05" routeLength="992.08" waitingTime="5.30" waitingCount="1" stopTime="0.00" timeLoss="15.07" rerouteNo="0" devices="tripinfo_b_left_v.0" vType="DEFAULT_VEHTYPE" speedFactor="1.05" vaporized=""/>
    <tripinfo id="a1_straight_v.1" depart="5.25" departLane="gneE19_0" departPos="5.10" departSpeed="0.00" departDelay="1.25" arrival="93.85" arrivalLane="gneE15_0" arrivalPos="705.97" arrivalSpeed="15.11" duration="88.60" routeLength="1535.24" waitingTime="0.00" waitingCount="0" stopTime="0.00" timeLoss="7.64" rerouteNo="0" devices="tripinfo_a1_straight_v.1" vType="DEFAULT_VEHTYPE" speedFactor="1.09" vaporized=""/>
    <tripinfo id="a2_right_v.1" depart="20.00" departLane="gneE14_1" departPos="5.10" departSpeed="0.00" departDelay="0.00" arrival="96.05" arrivalLane="502199947#0_1" arrivalPos="151.11" arrivalSpeed="14.11" duration="76.05" routeLength="981.34" waitingTime="0.00" waitingCount="0" stopTime="0.00" timeLoss="5.92" rerouteNo="0" devices="tripinfo_a2_right_v.1" vType="DEFAULT_VEHTYPE" speedFactor="1.02" vaporized=""/>
    <tripinfo id="a1_straight_v.2" depart="8.00" departLane="gneE19_0" departPos="5.10" departSpeed="0.00" departDelay="0.00" arrival="98.70" arrivalLane="gneE15_0" arrivalPos="705.97" arrivalSpeed="14.49" duration="90.70" routeLength="1535.24" waitingTime="0.00" waitingCount="0" stopTime="0.00" timeLoss="6.36" rerouteNo="0" devices="tripinfo_a1_straight_v.2" vType="DEFAULT_VEHTYPE" speedFactor="1.05" vaporized=""/>
    <tripinfo id="a1_straight_v.0" depart="2.60" departLane="gneE19_0" departPos="5.10" departSpeed="0.00" departDelay="2.60" arrival="102.95" arrivalLane="gneE15_0" arrivalPos="705.97" arrivalSpeed="13.03" duration="100.35" routeLength="1535.24" waitingTime="0.00" waitingCount="0" stopTime="0.00" timeLoss="6.22" rerouteNo="0" devices="tripinfo_a1_straight_v.0" vType="DEFAULT_VEHTYPE" speedFactor="0.94" vaporized=""/>
    <tripinfo id="a2_right_v.2" depart="40.00" departLane="gneE14_1" departPos="5.10" departSpeed="0.00" departDelay="0.00" arrival="108.60" arrivalLane="502199947#0_1" arrivalPos="151.11" arrivalSpeed="16.25" duration="68.60" routeLength="981.34" waitingTime="0.00" waitingCount="0" stopTime="0.00" timeLoss="7.64" rerouteNo="0" devices="tripinfo_a2_right_v.2" vType="DEFAULT_VEHTYPE" speedFactor="1.17" vaporized=""/>
    <tripinfo id="a1_left_v.1" depart="20.00" departLane="gneE19_0" departPos="5.10" departSpeed="0.00" departDelay="0.00" arrival="109.10" arrivalLane="gneE4_1" arrivalPos="105.71" arrivalSpeed="12.94" duration="89.10" routeLength="942.89" waitingTime="29.35" waitingCount="1" stopTime="0.00" timeLoss="39.42" rerouteNo="0" devices="tripinfo_a1_left_v.1" vType="DEFAULT_VEHTYPE" speedFactor="0.94" vaporized=""/>
    <tripinfo id="a1_left_v.2" depart="40.00" departLane="gneE19_0" departPos="5.10" departSpeed="0.00" departDelay="0.00" arrival="110.50" arrivalLane="gneE4_1" arrivalPos="105.71" arrivalSpeed="15.39" duration="70.50" routeLength="942.89" waitingTime="11.10" waitingCount="1" stopTime="0.00" timeLoss="30.20" rerouteNo="0" devices="tripinfo_a1_left_v.2" vType="DEFAULT_VEHTYPE" speedFactor="1.15" vaporized=""/>
    <tripinfo id="a1_left_v.3" depart="60.00" departLane="gneE19_0" departPos="5.10" departSpeed="0.00" departDelay="0.00" arrival="112.55" arrivalLane="gneE4_1" arrivalPos="105.71" arrivalSpeed="14.48" duration="52.55" routeLength="942.89" waitingTime="0.00" waitingCount="0" stopTime="0.00" timeLoss="7.97" rerouteNo="0" devices="tripinfo_a1_left_v.3" vType="DEFAULT_VEHTYPE" speedFactor="1.04" vaporized=""/>
    <tripinfo id="b_left_v.1" depart="20.00" departLane="-502199947#0_0" departPos="5.10" departSpeed="0.00" departDelay="0.00" arrival="114.10" arrivalLane="gneE15_0" arrivalPos="705.97" arrivalSpeed="13.51" duration="94.10" routeLength="987.17" waitingTime="9.65" waitingCount="1" stopTime="0.00" timeLoss="23.60" rerouteNo="0" devices="tripinfo_b_left_v.1" vType="DEFAULT_VEHTYPE" speedFactor="0.98" vaporized=""/>
    <tripinfo id="b_left_v.2" depart="40.00" departLane="-502199947#0_0" departPos="5.10" departSpeed="0.00" departDelay="0.00" arrival="114.15" arrivalLane="gneE15_1" arrivalPos="705.97" arrivalSpeed="14.12" duration="74.15" routeLength="987.17" waitingTime="0.00" waitingCount="0" stopTime="0.00" timeLoss="6.72" rerouteNo="0" devices="tripinfo_b_left_v.2" vType="DEFAULT_VEHTYPE" speedFactor="1.02" vaporized=""/>
    <tripinfo id="a1_straight_v.5" depart="22.65" departLane="gneE19_0" departPos="5.10" departSpeed="0.00" departDelay="2.65" arrival="122.55" arrivalLane="gneE15_0" arrivalPos="705.97" arrivalSpeed="16.06" duration="99.90" routeLength="1535.24" waitingTime="0.00" waitingCount="0" stopTime="0.00" timeLoss="23.65" rerouteNo="0" devices="tripinfo_a1_straight_v.5" vType="DEFAULT_VEHTYPE" speedFactor="1.16" vaporized=""/>
    <tripinfo id="a1_straight_v.3" depart="12.00" departLane="gneE19_0" departPos="5.10" departSpeed="0.00" departDelay="0.00" arrival="125.80" arrivalLane="gneE15_0" arrivalPos="705.97" arrivalSpeed="13.76" duration="113.80" routeLength="1535.24" waitingTime="13.15" waitingCount="1" stopTime="0.00" timeLoss="24.70" rerouteNo="0" devices="tripinfo_a1_straight_v.3" vType="DEFAULT_VEHTYPE" speedFactor="0.99" vaporized=""/>
    <tripinfo id="b_right_v.0" depart="5.30" departLane="-502199947#0_0" departPos="5.10" departSpeed="0.00" departDelay="5.30" arrival="126.65" arrivalLane="gneE6_2" arrivalPos="820.30" arrivalSpeed="12.98" duration="121.35" routeLength="1092.99" waitingTime="0.85" waitingCount="1" stopTime="0.00" timeLoss="39.90" rerouteNo="0" devices="tripinfo_b_right_v.0" vType="DEFAULT_VEHTYPE" speedFactor="0.94" vaporized=""/>
    <tripinfo id="a2_straight_v.2" depart="8.00" departLane="gneE14_1" departPos="5.10" departSpeed="0.00" departDelay="0.00" arrival="126.85" arrivalLane="gneE6_3" arrivalPos="820.30" arrivalSpeed="15.54" duration="118.85" routeLength="1540.73" waitingTime="9.80" waitingCount="1" stopTime="0.00" timeLoss="20.03" rerouteNo="0" devices="tripinfo_a2_straight_v.2" vType="DEFAULT_VEHTYPE" speedFactor="1.12" vaporized=""/>
    <tripinfo id="a2_straight_v.1" depart="5.25" departLane="gneE14_1" departPos="5.10" departSpeed="0.00" departDelay="1.25" arrival="131.05" arrivalLane="gneE6_2" arrivalPos="820.30" arrivalSpeed="14.22" duration="125.80" routeLength="1540.73" waitingTime="8.95" waitingCount="1" stopTime="0.00" timeLoss="17.71" rerouteNo="0" devices="tripinfo_a2_straight_v.1" vType="DEFAULT_VEHTYPE" speedFactor="1.03" vaporized=""/>
    <tripinfo id="a1_straight_v.4" depart="16.00" departLane="gneE19_0" departPos="5.10" departSpeed="0.00" departDelay="0.00" arrival="132.10" arrivalLane="gneE15_0" arrivalPos="705.97" arrivalSpeed="12.19" duration="116.10" routeLength="1535.24" waitingTime="5.10" waitingCount="1" stopTime="0.00" timeLoss="15.56" rerouteNo="0" devices="tripinfo_a1_straight_v.4" vType="DEFAULT_VEHTYPE" speedFactor="0.88" vaporized=""/>
    <tripinfo id="a1_straight_v.6" depart="25.30" departLane="gneE19_0" departPos="5.10" departSpeed="0.00" departDelay="1.30" arrival="134.70" arrivalLane="gneE15_1" arrivalPos="705.97" arrivalSpeed="12.33" duration="109.40" routeLength="1535.24" waitingTime="0.00" waitingCount="0" stopTime="0.00" timeLoss="10.11" rerouteNo="0" devices="tripinfo_a1_straight_v.6" vType="DEFAULT_VEHTYPE" speedFactor="0.89" vaporized=""/>
    <tripinfo id="a1_straight_v.7" depart="28.00" departLane="gneE19_0" departPos="5.10" departSpeed="0.00" departDelay="0.00" arrival="135.15" arrivalLane="gneE15_0" arrivalPos="705.97" arrivalSpeed="12.08" duration="107.15" routeLength="1535.24" waitingTime="0.00" waitingCount="0" stopTime="0.00" timeLoss="5.95" rerouteNo="0" devices="tripinfo_a1_straight_v.7" vType="DEFAULT_VEHTYPE" speedFactor="0.87" vaporized=""/>
    <tripinfo id="a1_straight_v.8" depart="32.00" departLane="gneE19_0" departPos="5.10" departSpeed="0.00" departDelay="0.00" arrival="136.20" arrivalLane="gneE15_1" arrivalPos="705.97" arrivalSpeed="13.14" duration="104.20" routeLength="1535.24" waitingTime="0.00" waitingCount="0" stopTime="0.00" timeLoss="11.15" rerouteNo="0" devices="tripinfo_a1_straight_v.8" vType="DEFAULT_VEHTYPE" speedFactor="0.95" vaporized=""/>
    <tripinfo id="a2_straight_v.5" depart="22.60" departLane="gneE14_1" departPos="5.10" departSpeed="0.00" departDelay="2.60" arrival="136.30" arrivalLane="gneE6_2" arrivalPos="820.30" arrivalSpeed="13.98" duration="113.70" routeLength="1540.73" waitingTime="0.00" waitingCount="0" stopTime="0.00" timeLoss="3.85" rerouteNo="0" devices="tripinfo_a2_straight_v.5" vType="DEFAULT_VEHTYPE" speedFactor="1.01" vaporized=""/>
    <tripinfo id="a2_right_v.3" depart="60.00" departLane="gneE14_1" departPos="5.10" departSpeed="0.00" departDelay="0.00" arrival="136.75" arrivalLane="502199947#0_1" arrivalPos="151.11" arrivalSpeed="13.79" duration="76.75" routeLength="981.34" waitingTime="0.00" waitingCount="0" stopTime="0.00" timeLoss="5.16" rerouteNo="0" devices="tripinfo_a2_right_v.3" vType="DEFAULT_VEHTYPE" speedFactor="1.00" vaporized=""/>
    <tripinfo id="a2_straight_v.9" depart="36.00" departLane="gneE14_1" departPos="5.10" departSpeed="0.00" departDelay="0.00" arrival="137.35" arrivalLane="gneE6_3" arrivalPos="820.30" arrivalSpeed="16.32" duration="101.35" routeLength="1540.73" waitingTime="0.00" waitingCount="0" stopTime="0.00" timeLoss="7.20" rerouteNo="0" devices="tripinfo_a2_straight_v.9" vType="DEFAULT_VEHTYPE" speedFactor="1.18" vaporized=""/>
    <tripinfo id="a1_straight_v.9" depart="36.00" departLane="gneE19_0" departPos="5.10" departSpeed="0.00" departDelay="0.00" arrival="137.40" arrivalLane="gneE15_0" arrivalPos="705.97" arrivalSpeed="12.91" duration="101.40" routeLength="1535.24" waitingTime="0.00" waitingCount="0" stopTime="0.00" timeLoss="6.57" rerouteNo="0" devices="tripinfo_a1_straight_v.9" vType="DEFAULT_VEHTYPE" speedFactor="0.93" vaporized=""/>
    <tripinfo id="a1_straight_v.12" depart="48.00" departLane="gneE19_0" departPos="5.10" departSpeed="0.00" departDelay="0.00" arrival="137.65" arrivalLane="gneE15_1" arrivalPos="705.97" arrivalSpeed="15.27" duration="89.65" routeLength="1535.24" waitingTime="0.00" waitingCount="0" stopTime="0.00" timeLoss="9.55" rerouteNo="0" devices="tripinfo_a1_straight_v.12" vType="DEFAULT_VEHTYPE" speedFactor="1.10" vaporized=""/>
    <tripinfo id="a2_straight_v.3" depart="12.00" departLane="gneE14_1" departPos="5.10" departSpeed="0.00" departDelay="0.00" arrival="138.55" arrivalLane="gneE6_2" arrivalPos="820.30" arrivalSpeed="12.83" duration="126.55" routeLength="1540.73" waitingTime="0.00" waitingCount="0" stopTime="0.00" timeLoss="6.88" rerouteNo="0" devices="tripinfo_a2_straight_v.3" vType="DEFAULT_VEHTYPE" speedFactor="0.93" vaporized=""/>
    <tripinfo id="a1_straight_v.10" depart="42.65" departLane="gneE19_0" departPos="5.10" departSpeed="0.00" departDelay="2.65" arrival="138.90" arrivalLane="gneE15_0" arrivalPos="705.97" arrivalSpeed="13.96" duration="96.25" routeLength="1535.24" waitingTime="0.00" waitingCount="0" stopTime="0.00" timeLoss="8.37" rerouteNo="0" devices="tripinfo_a1_straight_v.10" vType="DEFAULT_VEHTYPE" speedFactor="1.01" vaporized=""/>
    <tripinfo id="a2_straight_v.8" depart="32.00" departLane="gneE14_1" departPos="5.10" departSpeed="0.00" departDelay="0.00" arrival="140.55" arrivalLane="gneE6_3" arrivalPos="820.30" arrivalSpeed="15.68" duration="108.55" routeLength="1540.73" waitingTime="0.00" waitingCount="0" stopTime="0.00" timeLoss="10.53" rerouteNo="0" devices="tripinfo_a2_straight_v.8" vType="DEFAULT_VEHTYPE" speedFactor="1.13" vaporized=""/>
    <tripinfo id="a2_straight_v.4" depart="16.00" departLane="gneE14_1" departPos="5.10" departSpeed="0.00" departDelay="0.00" arrival="140.90" arrivalLane="gneE6_2" arrivalPos="820.30" arrivalSpeed="13.03" duration="124.90" routeLength="1540.73" waitingTime="0.00" waitingCount="0" stopTime="0.00" timeLoss="7.05" rerouteNo="0" devices="tripinfo_a2_straight_v.4" vType="DEFAULT_VEHTYPE" speedFactor="0.94" vaporized=""/>
    <tripinfo id="a1_straight_v.11" depart="45.30" departLane="gneE19_0" departPos="5.10" departSpeed="0.00" departDelay="1.30" arrival="142.80" arrivalLane="gneE15_0" arrivalPos="705.97" arrivalSpeed="13.50" duration="97.50" routeLength="1535.24" waitingTime="0.00" waitingCount="0" stopTime="0.00" timeLoss="6.75" rerouteNo="0" devices="tripinfo_a1_straight_v.11" vType="DEFAULT_VEHTYPE" speedFactor="0.97" vaporized=""/>
    <tripinfo id="a1_straight_v.14" depart="56.00" departLane="gneE19_0" departPos="5.10" departSpeed="0.00" departDelay="0.00" arrival="144.75" arrivalLane="gneE15_1" arrivalPos="705.97" arrivalSpeed="15.10" duration="88.75" routeLength="1535.24" waitingTime="0.00" waitingCount="0" stopTime="0.00" timeLoss="7.90" rerouteNo="0" devices="tripinfo_a1_straight_v.14" vType="DEFAULT_VEHTYPE" speedFactor="1.09" vaporized=""/>
    <tripinfo id="a1_straight_v.13" depart="52.00" departLane="gneE19_0" departPos="5.10" departSpeed="0.00" departDelay="0.00" arrival="145.10" arrivalLane="gneE15_0" arrivalPos="705.97" arrivalSpeed="14.29" duration="93.10" routeLength="1535.24" waitingTime="0.00" waitingCount="0" stopTime="0.00" timeLoss="7.41" rerouteNo="0" devices="tripinfo_a1_straight_v.13" vType="DEFAULT_VEHTYPE" speedFactor="1.03" vaporized=""/>
    <tripinfo id="a2_straight_v.0" depart="2.60" departLane="gneE14_1" departPos="5.10" departSpeed="0.00" departDelay="2.60" arrival="145.55" arrivalLane="gneE6_2" arrivalPos="820.30" arrivalSpeed="11.51" duration="142.95" routeLength="1540.73" waitingTime="0.00" waitingCount="0" stopTime="0.00" timeLoss="9.46" rerouteNo="0" devices="tripinfo_a2_straight_v.0" vType="DEFAULT_VEHTYPE" speedFactor="0.83" vaporized=""/>
    <tripinfo id="a1_straight_v.15" depart="62.65" departLane="gneE19_0" departPos="5.10" departSpeed="0.00" departDelay="2.65" arrival="151.75" arrivalLane="gneE15_0" arrivalPos="705.97" arrivalSpeed="15.08" duration="89.10" routeLength="1535.24" waitingTime="0.00" waitingCount="0" stopTime="0.00" timeLoss="7.91" rerouteNo="0" devices="tripinfo_a1_straight_v.15" vType="DEFAULT_VEHTYPE" speedFactor="1.09" vaporized=""/>
    <tripinfo id="a2_straight_v.7" depart="28.00" departLane="gneE14_1" departPos="5.10" departSpeed="0.00" departDelay="0.00" arrival="152.60" arrivalLane="gneE6_2" arrivalPos="820.30" arrivalSpeed="12.68" duration="124.60" routeLength="1540.73" waitingTime="0.00" waitingCount="0" stopTime="0.00" timeLoss="3.67" rerouteNo="0" devices="tripinfo_a2_straight_v.7" vType="DEFAULT_VEHTYPE" speedFactor="0.92" vaporized=""/>
    <tripinfo id="a1_straight_v.17" depart="68.00" departLane="gneE19_0" departPos="5.10" departSpeed="0.00" departDelay="0.00" arrival="160.95" arrivalLane="gneE15_0" arrivalPos="705.97" arrivalSpeed="14.09" duration="92.95" routeLength="1535.24" waitingTime="0.00" waitingCount="0" stopTime="0.00" timeLoss="6.12" rerouteNo="0" devices="tripinfo_a1_straight_v.17" vType="DEFAULT_VEHTYPE" speedFactor="1.02" vaporized=""/>
    <tripinfo id="a2_right_v.4" depart="80.00" departLane="gneE14_1" departPos="5.10" departSpeed="0.00" departDelay="0.00" arrival="161.75" arrivalLane="502199947#0_1" arrivalPos="151.11" arrivalSpeed="14.98" duration="81.75" routeLength="981.34" waitingTime="7.60" waitingCount="1" stopTime="0.00" timeLoss="15.82" rerouteNo="0" devices="tripinfo_a2_right_v.4" vType="DEFAULT_VEHTYPE" speedFactor="1.08" vaporized=""/>
    <tripinfo id="a2_straight_v.6" depart="25.25" departLane="gneE14_1" departPos="5.10" departSpeed="0.00" departDelay="1.25" arrival="162.80" arrivalLane="gneE6_2" arrivalPos="820.30" arrivalSpeed="11.46" duration="137.55" routeLength="1540.73" waitingTime="0.00" waitingCount="0" stopTime="0.00" timeLoss="3.20" rerouteNo="0" devices="tripinfo_a2_straight_v.6" vType="DEFAULT_VEHTYPE" speedFactor="0.83" vaporized=""/>
    <tripinfo id="a2_straight_v.11" depart="45.30" departLane="gneE14_1" departPos="5.10" departSpeed="0.00" departDelay="1.30" arrival="164.30" arrivalLane="gneE6_3" arrivalPos="820.30" arrivalSpeed="16.33" duration="119.00" routeLength="1540.73" waitingTime="14.60" waitingCount="1" stopTime="0.00" timeLoss="24.97" rerouteNo="0" devices="tripinfo_a2_straight_v.11" vType="DEFAULT_VEHTYPE" speedFactor="1.18" vaporized=""/>
    <tripinfo id="a1_straight_v.18" depart="72.00" departLane="gneE19_0" departPos="5.10" departSpeed="0.00" departDelay="0.00" arrival="166.05" arrivalLane="gneE15_0" arrivalPos="705.97" arrivalSpeed="13.87" duration="94.05" routeLength="1535.24" waitingTime="0.00" waitingCount="0" stopTime="0.00" timeLoss="6.04" rerouteNo="0" devices="tripinfo_a1_straight_v.18" vType="DEFAULT_VEHTYPE" speedFactor="1.00" vaporized=""/>
    <tripinfo id="a2_straight_v.14" depart="56.00" departLane="gneE14_1" departPos="5.10" departSpeed="0.00" departDelay="0.00" arrival="172.10" arrivalLane="gneE6_3" arrivalPos="820.30" arrivalSpeed="14.38" duration="116.10" routeLength="1540.73" waitingTime="0.00" waitingCount="0" stopTime="0.00" timeLoss="9.20" rerouteNo="0" devices="tripinfo_a2_straight_v.14" vType="DEFAULT_VEHTYPE" speedFactor="1.04" vaporized=""/>
    <tripinfo id="a2_straight_v.10" depart="42.65" departLane="gneE14_1" departPos="5.10" departSpeed="0.00" departDelay="2.65" arrival="172.75" arrivalLane="gneE6_2" arrivalPos="820.30" arrivalSpeed="13.78" duration="130.10" routeLength="1540.73" waitingTime="9.85" waitingCount="1" stopTime="0.00" timeLoss="18.60" rerouteNo="0" devices="tripinfo_a2_straight_v.10" vType="DEFAULT_VEHTYPE" speedFactor="0.99" vaporized=""/>
    <tripinfo id="a2_straight_v.16" depart="65.25" departLane="gneE14_1" departPos="5.10" departSpeed="0.00" departDelay="1.25" arrival="173.50" arrivalLane="gneE6_3" arrivalPos="820.30" arrivalSpeed="16.19" duration="108.25" routeLength="1540.73" waitingTime="0.00" waitingCount="0" stopTime="0.00" timeLoss="13.36" rerouteNo="0" devices="tripinfo_a2_straight_v.16" vType="DEFAULT_VEHTYPE" speedFactor="1.17" vaporized=""/>
    <tripinfo id="a1_straight_v.16" depart="65.25" departLane="gneE19_0" departPos="5.10" departSpeed="0.00" departDelay="1.25" arrival="173.55" arrivalLane="gneE15_0" arrivalPos="705.97" arrivalSpeed="11.85" duration="108.30" routeLength="1535.24" waitingTime="0.00" waitingCount="0" stopTime="0.00" timeLoss="5.00" rerouteNo="0" devices="tripinfo_a1_straight_v.16" vType="DEFAULT_VEHTYPE" speedFactor="0.85" vaporized=""/>
    <tripinfo id="a2_straight_v.17" depart="68.00" departLane="gneE14_1" departPos="5.10" departSpeed="0.00" departDelay="0.00" arrival="174.25" arrivalLane="gneE6_2" arrivalPos="820.30" arrivalSpeed="15.21" duration="106.25" routeLength="1540.73" waitingTime="0.00" waitingCount="0" stopTime="0.00" timeLoss="5.03" rerouteNo="0" devices="tripinfo_a2_straight_v.17" vType="DEFAULT_VEHTYPE" speedFactor="1.10" vaporized=""/>
    <tripinfo id="a2_right_v.5" depart="100.00" departLane="gneE14_1" departPos="5.10" departSpeed="0.00" departDelay="0.00" arrival="176.15" arrivalLane="502199947#0_1" arrivalPos="151.11" arrivalSpeed="14.60" duration="76.15" routeLength="981.34" waitingTime="0.50" waitingCount="1" stopTime="0.00" timeLoss="8.52" rerouteNo="0" devices="tripinfo_a2_right_v.5" vType="DEFAULT_VEHTYPE" speedFactor="1.06" vaporized=""/>
    <tripinfo id="a2_straight_v.13" depart="52.00" departLane="gneE14_1" departPos="5.10" departSpeed="0.00" departDelay="0.00" arrival="179.55" arrivalLane="gneE6_3" arrivalPos="820.30" arrivalSpeed="13.24" duration="127.55" routeLength="1540.73" waitingTime="0.00" waitingCount="0" stopTime="0.00" timeLoss="11.65" rerouteNo="0" devices="tripinfo_a2_straight_v.13" vType="DEFAULT_VEHTYPE" speedFactor="0.96" vaporized=""/>
    <tripinfo id="a1_straight_v.19" depart="76.00" departLane="gneE19_0" departPos="5.10" departSpeed="0.00" departDelay="0.00" arrival="179.55" arrivalLane="gneE15_0" arrivalPos="705.97" arrivalSpeed="12.45" duration="103.55" routeLength="1535.24" waitingTime="0.00" waitingCount="0" stopTime="0.00" timeLoss="5.32" rerouteNo="0" devices="tripinfo_a1_straight_v.19" vType="DEFAULT_VEHTYPE" speedFactor="0.90" vaporized=""/>
    <tripinfo id="a1_straight_v.20" depart="82.60" departLane="gneE19_0" departPos="5.10" departSpeed="0.00" departDelay="2.60" arrival="179.65" arrivalLane="gneE15_1" arrivalPos="705.97" arrivalSpeed="13.43" duration="97.05" routeLength="1535.24" waitingTime="0.00" waitingCount="0" stopTime="0.00" timeLoss="5.99" rerouteNo="0" devices="tripinfo_a1_straight_v.20" vType="DEFAULT_VEHTYPE" speedFactor="0.97" vaporized=""/>
    <tripinfo id="a2_right_b.0" depart="0.00" departLane="gneE14_0" departPos="1.70" departSpeed="0.00" departDelay="0.00" arrival="180.05" arrivalLane="502199947#0_0" arrivalPos="151.11" arrivalSpeed="5.53" duration="180.05" routeLength="981.06" waitingTime="0.05" waitingCount="1" stopTime="0.00" timeLoss="3.40" rerouteNo="0" devices="tripinfo_a2_right_b.0" vType="DEFAULT_BIKETYPE" speedFactor="1.01" vaporized=""/>
    <tripinfo id="a2_straight_v.12" depart="48.00" departLane="gneE14_1" departPos="5.10" departSpeed="0.00" departDelay="0.00" arrival="180.20" arrivalLane="gneE6_2" arrivalPos="820.30" arrivalSpeed="12.49" duration="132.20" routeLength="1540.73" waitingTime="0.00" waitingCount="0" stopTime="0.00" timeLoss="9.03" rerouteNo="0" devices="tripinfo_a2_straight_v.12" vType="DEFAULT_VEHTYPE" speedFactor="0.90" vaporized=""/>
    <tripinfo id="a2_straight_v.19" depart="76.00" departLane="gneE14_1" departPos="5.10" departSpeed="0.00" departDelay="0.00" arrival="181.00" arrivalLane="gneE6_3" arrivalPos="820.30" arrivalSpeed="15.86" duration="105.00" routeLength="1540.73" waitingTime="0.00" waitingCount="0" stopTime="0.00" timeLoss="7.88" rerouteNo="0" devices="tripinfo_a2_straight_v.19" vType="DEFAULT_VEHTYPE" speedFactor="1.14" vaporized=""/>
    <tripinfo id="a1_straight_v.21" depart="85.30" departLane="gneE19_0" departPos="5.10" departSpeed="0.00" departDelay="1.30" arrival="181.15" arrivalLane="gneE15_0" arrivalPos="705.97" arrivalSpeed="13.69" duration="95.85" routeLength="1535.24" waitingTime="0.00" waitingCount="0" stopTime="0.00" timeLoss="6.38" rerouteNo="0" devices="tripinfo_a1_straight_v.21" vType="DEFAULT_VEHTYPE" speedFactor="0.99" vaporized=""/>
    <tripinfo id="a2_straight_v.18" depart="72.00" departLane="gneE14_1" departPos="5.10" departSpeed="0.00" departDelay="0.00" arrival="187.25" arrivalLane="gneE6_2" arrivalPos="820.30" arrivalSpeed="13.79" duration="115.25" routeLength="1540.73" waitingTime="0.00" waitingCount="0" stopTime="0.00" timeLoss="3.87" rerouteNo="0" devices="tripinfo_a2_straight_v.18" vType="DEFAULT_VEHTYPE" speedFactor="1.00" vaporized=""/>
    <tripinfo id="a2_straight_v.20" depart="82.65" departLane="gneE14_1" departPos="5.10" departSpeed="0.00" departDelay="2.65" arrival="188.05" arrivalLane="gneE6_3" arrivalPos="820.30" arrivalSpeed="15.51" duration="105.40" routeLength="1540.73" waitingTime="0.00" waitingCount="0" stopTime="0.00" timeLoss="6.28" rerouteNo="0" devices="tripinfo_a2_straight_v.20" vType="DEFAULT_VEHTYPE" speedFactor="1.12" vaporized=""/>
    <tripinfo id="a2_straight_v.15" depart="62.65" departLane="gneE14_1" departPos="5.10" departSpeed="0.00" departDelay="2.65" arrival="189.15" arrivalLane="gneE6_2" arrivalPos="820.30" arrivalSpeed="12.45" duration="126.50" routeLength="1540.73" waitingTime="0.00" waitingCount="0" stopTime="0.00" timeLoss="3.33" rerouteNo="0" devices="tripinfo_a2_straight_v.15" vType="DEFAULT_VEHTYPE" speedFactor="0.90" vaporized=""/>
    <tripinfo id="a1_straight_v.24" depart="96.00" departLane="gneE19_0" departPos="5.10" departSpeed="0.00" departDelay="0.00" arrival="191.15" arrivalLane="gneE15_0" arrivalPos="705.97" arrivalSpeed="14.17" duration="95.15" routeLength="1535.24" waitingTime="0.00" waitingCount="0" stopTime="0.00" timeLoss="8.78" rerouteNo="0" devices="tripinfo_a1_straight_v.24" vType="DEFAULT_VEHTYPE" speedFactor="1.02" vaporized=""/>
    <tripinfo id="a1_straight_v.22" depart="88.00" departLane="gneE19_0" departPos="5.10" departSpeed="0.00" departDelay="0.00" arrival="193.45" arrivalLane="gneE15_0" arrivalPos="705.97" arrivalSpeed="12.21" duration="105.45" routeLength="1535.24" waitingTime="0.00" waitingCount="0" stopTime="0.00" timeLoss="5.38" rerouteNo="0" devices="tripinfo_a1_straight_v.22" vType="DEFAULT_VEHTYPE" speedFactor="0.88" vaporized=""/>
    <tripinfo id="a1_straight_v.23" depart="92.00" departLane="gneE19_0" departPos="5.10" departSpeed="0.00" departDelay="0.00" arrival="194.60" arrivalLane="gneE15_1" arrivalPos="705.97" arrivalSpeed="12.67" duration="102.60" routeLength="1535.24" waitingTime="0.00" waitingCount="0" stopTime="0.00" timeLoss="6.02" rerouteNo="0" devices="tripinfo_a1_straight_v.23" vType="DEFAULT_VEHTYPE" speedFactor="0.91" vaporized=""/>
    <tripinfo id="a1_left_v.4" depart="80.00" departLane="gneE19_0" departPos="5.10" departSpeed="0.00" departDelay="0.00" arrival="195.55" arrivalLane="gneE4_1" arrivalPos="105.71" arrivalSpeed="14.16" duration="115.55" routeLength="942.89" waitingTime="58.90" waitingCount="1" stopTime="0.00" timeLoss="70.11" rerouteNo="0" devices="tripinfo_a1_left_v.4" vType="DEFAULT_VEHTYPE" speedFactor="1.02" vaporized=""/>
    <tripinfo id="a2_right_v.6" depart="120.00" departLane="gneE14_1" departPos="5.10" departSpeed="0.00" departDelay="0.00" arrival="196.50" arrivalLane="502199947#0_1" arrivalPos="151.11" arrivalSpeed="13.86" duration="76.50" routeLength="981.34" waitingTime="0.00" waitingCount="0" stopTime="0.00" timeLoss="5.22" rerouteNo="0" devices="tripinfo_a2_right_v.6" vType="DEFAULT_VEHTYPE" speedFactor="1.00" vaporized=""/>
    <tripinfo id="a1_left_v.5" depart="100.00" departLane="gneE19_0" departPos="5.10" departSpeed="0.00" departDelay="0.00" arrival="197.25" arrivalLane="gneE4_1" arrivalPos="105.71" arrivalSpeed="13.48" duration="97.25" routeLength="942.89" waitingTime="33.80" waitingCount="1" stopTime="0.00" timeLoss="49.47" rerouteNo="0" devices="tripinfo_a1_left_v.5" vType="DEFAULT_VEHTYPE" speedFactor="0.97" vaporized=""/>
    <tripinfo id="a1_left_v.6" depart="120.00" departLane="gneE19_0" departPos="5.10" departSpeed="0.00" departDelay="0.00" arrival="198.65" arrivalLane="gneE4_1" arrivalPos="105.71" arrivalSpeed="15.88" duration="78.65" routeLength="942.89" waitingTime="18.65" waitingCount="1" stopTime="0.00" timeLoss="38.11" rerouteNo="0" devices="tripinfo_a1_left_v.6" vType="DEFAULT_VEHTYPE" speedFactor="1.15" vaporized=""/>
    <tripinfo id="a1_straight_v.26" depart="105.30" departLane="gneE19_0" departPos="5.10" departSpeed="0.00" departDelay="1.30" arrival="199.70" arrivalLane="gneE15_0" arrivalPos="705.97" arrivalSpeed="14.31" duration="94.40" routeLength="1535.24" waitingTime="0.00" waitingCount="0" stopTime="0.00" timeLoss="8.88" rerouteNo="0" devices="tripinfo_a1_straight_v.26" vType="DEFAULT_VEHTYPE" speedFactor="1.03" vaporized=""/>